 Gaussian 16, Revision B.01,
 Gaussian 16:  EM64W-G16RevB.01 16-Dec-2017

 --------------------------------------------------------
 # Scan B3LYP/6-31G* EmpiricalDispersion=GD3BJ NoSymmetry
 --------------------------------------------------------

 --------------------------------
 Optimized at B3LYP-D3(BJ)/6-31G*
 --------------------------------
 Symbolic Z-matrix:
 Charge =  0 Multiplicity = 1

 SCF Done:  E(RB3LYP) =  -79.8358277568     A.U. after    9 cycles

 Alpha  occ. eigenvalues --  -10.17231 -10.17210  -0.74752  -0.61188  -0.43018
 Alpha  occ. eigenvalues --   -0.43018  -0.36279  -0.34006  -0.34006
 Alpha virt. eigenvalues --    0.10474   0.15615   0.16371   0.16371   0.19020
 Alpha virt. eigenvalues --    0.19020   0.24264   0.51295   0.54391   0.54391
 Alpha virt. eigenvalues --    0.63662   0.63662   0.66875   0.88294   0.88294

 Mulliken charges:
               1
     1  C   -0.432775
     2  H    0.144259
     3  H    0.144258
     4  H    0.144258
     5  C   -0.432775
     6  H    0.144259
     7  H    0.144258
     8  H    0.144258
 Sum of Mulliken charges =   0.00000

 Dipole moment (field-independent basis, Debye):
    X=              0.0000    Y=              0.0000    Z=              0.0000  Tot=              0.0000
 Quadrupole moment (field-independent basis, Debye-Ang):
   XX=            -14.8416   YY=            -15.0380   ZZ=            -14.7817
   XY=              0.2052   XZ=             -0.0947   YZ=              0.1503

 SCF Done:  E(RB3LYP) =  -79.8355136946     A.U. after    8 cycles
 SCF Done:  E(RB3LYP) =  -79.8346528296     A.U. after    8 cycles
 SCF Done:  E(RB3LYP) =  -79.8334703813     A.U. after    9 cycles
 SCF Done:  E(RB3LYP) =  -79.8322805669     A.U. after    8 cycles
 SCF Done:  E(RB3LYP) =  -79.8314049224     A.U. after    9 cycles
 SCF Done:  E(RB3LYP) =  -79.8310832481     A.U. after    8 cycles
 SCF Done:  E(RB3LYP) =  -79.8314049843     A.U. after    8 cycles
 SCF Done:  E(RB3LYP) =  -79.8322804168     A.U. after    8 cycles
 SCF Done:  E(RB3LYP) =  -79.8334704234     A.U. after    8 cycles
 SCF Done:  E(RB3LYP) =  -79.8334703813     A.U. after    9 cycles
 SCF Done:  E(RB3LYP) =  -79.8322805669     A.U. after    8 cycles
 SCF Done:  E(RB3LYP) =  -79.8314049224     A.U. after    9 cycles
 SCF Done:  E(RB3LYP) =  -79.8310832481     A.U. after    8 cycles
 SCF Done:  E(RB3LYP) =  -79.8314049843     A.U. after    8 cycles
 SCF Done:  E(RB3LYP) =  -79.8322804168     A.U. after    8 cycles
 SCF Done:  E(RB3LYP) =  -79.8334704234     A.U. after    8 cycles
 SCF Done:  E(RB3LYP) =  -79.8346527241     A.U. after    8 cycles
 SCF Done:  E(RB3LYP) =  -79.8355136185     A.U. after    8 cycles

                         Z-Matrix orientation:
 ---------------------------------------------------------------------
 Center     Atomic      Atomic             Coordinates (Angstroms)
 Number     Number       Type             X           Y           Z
 ---------------------------------------------------------------------
      1          6           0        0.000000    0.000000    0.000000
      2          1           0        0.000000    0.000000    1.096128
      3          1           0        1.045092    0.000000   -0.330575
      4          1           0       -0.451283   -0.942635   -0.330575
      5          6           0       -0.759694    1.205967   -0.556492
      6          1           0       -0.759694    1.205967   -1.652620
      7          1           0       -1.804785    1.205967   -0.225917
      8          1           0       -0.308410    2.148602   -0.225917
 ---------------------------------------------------------------------

 SCF Done:  E(RB3LYP) =  -79.8358277568     A.U. after    8 cycles
 Normal termination of Gaussian 16 at Fri Jul 15 14:31:38 2022.
